
#(C) 2023 by FIZ Karlsruhe - Leibniz Institute for Information Infrastructure.  All rights reserved.
data_88306-ICSD
_database_code_ICSD 88306
_audit_creation_date 2001-07-16
_audit_update_record 2008-08-01
_chemical_name_common
'Hafnium titanium nickel vanadium deuteride (0.7/0.3/1.36/0.65/2.18)'
_chemical_formula_structural '(Hf0.702 Ti0.298) (Ni1.355 V0.645) D2.175'
_chemical_formula_sum 'D2.175 Hf0.702 Ni1.355 Ti0.298 V0.645'
_chemical_name_structure_type Mn2ZrHx-frame#MgZn2
_exptl_crystal_density_diffrn 8.65
_citation_title

;
Neutron diffraction study of the new hexagonal Laves phase (Hf, Ti) (Ni, V)2
and its deuteride
;
loop_
_citation_id
_citation_journal_full
_citation_year
_citation_journal_volume
_citation_page_first
_citation_page_last
_citation_journal_id_ASTM
primary 'Journal of Alloys and Compounds' 1999 293 169 173 JALCEU
loop_
_citation_author_citation_id
_citation_author_name
primary 'Roennebro, E.'
primary 'Noreus, D.'
primary 'Tsukahara, M.'
primary 'Sakai, T.'
_cell_length_a 5.174(2)
_cell_length_b 5.174(2)
_cell_length_c 8.491(6)
_cell_angle_alpha 90.
_cell_angle_beta 90.
_cell_angle_gamma 120.
_cell_volume 196.85
_cell_formula_units_Z 4
_space_group_name_H-M_alt 'P 63/m m c'
_space_group_IT_number 194
loop_
_space_group_symop_id
_space_group_symop_operation_xyz
1 'x, x-y, -z+1/2'
2 '-x+y, y, -z+1/2'
3 '-y, -x, -z+1/2'
4 '-x+y, -x, -z+1/2'
5 '-y, x-y, -z+1/2'
6 'x, y, -z+1/2'
7 '-x, -x+y, z+1/2'
8 'x-y, -y, z+1/2'
9 'y, x, z+1/2'
10 'x-y, x, z+1/2'
11 'y, -x+y, z+1/2'
12 '-x, -y, z+1/2'
13 '-x, -x+y, -z'
14 'x-y, -y, -z'
15 'y, x, -z'
16 'x-y, x, -z'
17 'y, -x+y, -z'
18 '-x, -y, -z'
19 'x, x-y, z'
20 '-x+y, y, z'
21 '-y, -x, z'
22 '-x+y, -x, z'
23 '-y, x-y, z'
24 'x, y, z'
loop_
_atom_type_symbol
_atom_type_oxidation_number
Hf0+ 0
Ti0+ 0
Ni0+ 0
V0+ 0
Ni0+ 0
V0+ 0
D0+ 0
loop_
_atom_site_label
_atom_site_type_symbol
_atom_site_symmetry_multiplicity
_atom_site_Wyckoff_symbol
_atom_site_fract_x
_atom_site_fract_y
_atom_site_fract_z
_atom_site_B_iso_or_equiv
_atom_site_occupancy
Hf1 Hf0+ 4 f 0.3333 0.6667 0.070(3) 1.7(6) 0.7025
Ti1 Ti0+ 4 f 0.3333 0.6667 0.070(3) 1.7(6) 0.2975
Ni1 Ni0+ 2 a 0 0 0 0.0(6) 0.13
V1 V0+ 2 a 0 0 0 0.0(6) 0.87
Ni2 Ni0+ 6 h 0.832(2) 0.168(2) 0.25 1.6(2) 0.86
V2 V0+ 6 h 0.832(2) 0.168(2) 0.25 1.6(2) 0.14
D1 D0+ 24 l 0.049(6) 0.372(6) 0.562(3) 2.8(7) 0.304(25)
D2 D0+ 6 h 0.23(2) 0.46(4) 0.25 2.8(7) 0.233(33)
#End of TTdata_88306-ICSD